 VARIABLES="X","Y","T"
 Zone T='Coordinate.'
 I=         135 J=         228 ,F=FEPOINT ET=Triangle
   1.00000000000000       0.000000000000000E+000   50.0000000000000     
   1.00000000000000        1.00000000000000        49.9995911488827     
   1.00000000000000       0.100000000000000        50.0000000000000     
   1.00000000000000       0.200000000000000        50.0000000000000     
   1.00000000000000       0.300000000000000        50.0000000000000     
   1.00000000000000       0.400000000000000        50.0000000000000     
   1.00000000000000       0.500000000000000        50.0000000000000     
   1.00000000000000       0.600000000000000        50.0000000000000     
   1.00000000000000       0.700000000000000        50.0000000000000     
   1.00000000000000       0.800000000000000        50.0000000000000     
   1.00000000000000       0.900000000000000        50.0000000000000     
  0.000000000000000E+000   1.00000000000000        45.8762398052530     
  0.900000000000000        1.00000000000000        34.4499175892005     
  0.800000000000000        1.00000000000000        35.1772290246588     
  0.700000000000000        1.00000000000000        35.2626016115714     
  0.600000000000000        1.00000000000000        35.2365430964870     
  0.500000000000000        1.00000000000000        29.4001542337878     
  0.400000000000000        1.00000000000000        28.5880791011480     
  0.300000000000000        1.00000000000000        33.2181385801962     
  0.200000000000000        1.00000000000000        32.7933672818449     
  0.100000000000000        1.00000000000000        35.6349330734730     
  0.000000000000000E+000  0.000000000000000E+000   100.000000000075     
  0.000000000000000E+000  0.900000000000000        40.9004429783243     
  0.000000000000000E+000  0.800000000000000        42.6605381514924     
  0.000000000000000E+000  0.700000000000000        41.9225252065543     
  0.000000000000000E+000  0.600000000000000        41.8328518601734     
  0.000000000000000E+000  0.500000000000000        40.4201722633580     
  0.000000000000000E+000  0.400000000000000        40.3143388472697     
  0.000000000000000E+000  0.300000000000000        41.7304803527571     
  0.000000000000000E+000  0.200000000000000        41.6566582254708     
  0.000000000000000E+000  0.100000000000000        39.0232044444450     
  0.100000000000000       0.000000000000000E+000   100.000000000000     
  0.200000000000000       0.000000000000000E+000   100.000000000000     
  0.300000000000000       0.000000000000000E+000   100.000000000000     
  0.400000000000000       0.000000000000000E+000   100.000000000000     
  0.500000000000000       0.000000000000000E+000   100.000000000000     
  0.600000000000000       0.000000000000000E+000   100.000000000000     
  0.700000000000000       0.000000000000000E+000   100.000000000000     
  0.800000000000000       0.000000000000000E+000   100.000000000000     
  0.900000000000000       0.000000000000000E+000   100.000000000000     
  0.930209755987000       7.033433270360000E-002   18.1837862607531     
  0.450348282164000       6.829666204270000E-002   17.4607568730811     
  7.037137691710001E-002  7.143205992340000E-002   16.6640393831660     
  7.183595234070000E-002  0.929598478296000        24.4311716268823     
  0.929511901914000       0.929464856121000        23.6083653880100     
  0.162838791232000       9.974685057240000E-002   15.5723012190473     
  8.329245577730000E-002  0.159125641154000        24.3307797923013     
  0.159978426431000       0.916809133282000        24.0977693625865     
  0.917780590161000       0.156254661656000        22.8380394662948     
  0.101084415469000       0.837301985168000        21.0392584893245     
  0.838538908519000       9.737521714060000E-002   14.9552995632998     
  0.836790341248000       0.902429039268000        21.0422274718365     
  0.916108717866000       0.843191284764000        22.6262888887485     
  8.949509916440000E-002  0.733343398428000        24.2843295045595     
  0.734935094951000       8.653852722840000E-002   17.0341824494253     
  0.733019356641000       0.914311962910000        23.9816271018279     
  0.911679593224000       0.744672057743000        23.7449387994432     
  0.266969758565000       8.720393339980000E-002   17.3300773935026     
  8.631832921969999E-002  0.260014510696000        24.3382454238766     
  0.261058508576000       0.914435035354000        24.9635801865034     
  0.914882922479000       0.253966013295000        23.0245505779729     
  0.366273819998000       8.404105654010000E-002   16.6960518230314     
  8.392676102640000E-002  0.361293408227000        23.4616490280533     
  0.362213074078000       0.917860398864000        24.0111591020254     
  0.915172008709000       0.351734100575000        22.9393772720144     
  8.861654036420000E-002  0.632604749884000        24.8295188347403     
  0.634743381686000       8.710047192070000E-002   17.7683310018902     
  0.632698912867000       0.915251033401000        24.5579328930507     
  0.910743927499000       0.645753463810000        23.9065663784346     
  8.417194957540000E-002  0.531766914514000        23.3258333106750     
  0.534738044247000       8.407180655200000E-002   16.7033702126525     
  0.913409909828000       0.547506596395000        23.2822742293443     
  0.532367560808000       0.919037315320000        23.4420355612114     
  0.216989983839000       0.829306638121000        26.2300903084001     
  6.793297033510000E-002  0.447318511536000        25.6062893018582     
  0.447962717612000       0.934255330336000        26.3522897682657     
  0.915780885211000       0.449678096818000        22.8251048329924     
  0.506910782308000       0.421050559234000        32.3546353193449     
  0.173516785317000       0.759280965587000        29.6526308015780     
  0.180052103049000       0.669002552692000        26.4686456169260     
  0.174901818160000       0.561947308269000        27.8953951763787     
  0.326128460997000       0.828189729124000        28.3736679441477     
  0.445906704616000       0.844565228360000        23.2037906111620     
  0.831140321695000       0.207221080915000        25.5751684288730     
  0.761898345356000       0.165927996256000        29.6236492195427     
  0.672716128537000       0.174415059982000        26.4669201998059     
  0.567291226159000       0.174053539520000        28.3622574191795     
  0.827110309840000       0.306013443531000        26.4680913937910     
  0.833233594324000       0.401719396547000        23.6642565123963     
  0.171334919206000       0.214267840186000        26.4980603372612     
  0.241881618149000       0.169602573267000        30.3481693117479     
  0.334782550505000       0.174157235954000        27.8135790152210     
  0.450759125248000       0.162158934541000        25.0867010016512     
  0.174601561649000       0.323203067930000        28.6693508486987     
  0.160962265723000       0.443773044678000        23.9734774744289     
  0.826604923742000       0.791724934986000        25.7653186159199     
  0.757731216067000       0.834426240028000        29.0002841041856     
  0.668007708070000       0.828484380896000        25.6842708417475     
  0.563028747769000       0.832889618260000        26.9823340925393     
  0.819080587059000       0.690480042827000        27.3814101670584     
  0.822597413659000       0.590243786446000        26.0988228946834     
  0.830764937146000       0.495616854044000        23.9383197422396     
  0.275750916212000       0.726619264218000        24.4433389335487     
  0.730859214714000       0.260836584135000        21.9976672287962     
  0.274582586708000       0.268460235106000        23.3217266571410     
  0.722335471411000       0.739121993012000        22.6054658955624     
  0.729304535335000       0.628822015091000        26.5600321844698     
  0.260320654932000       0.385695450718000        27.7937564851031     
  0.745285978220000       0.365085255079000        23.9058720388267     
  0.391755041197000       0.747785328163000        27.1278999673784     
  0.607883623394000       0.743386930238000        26.6317107611766     
  0.616851827838000       0.263599919491000        26.8954419012391     
  0.269077848736000       0.608366096852000        28.1274857576654     
  0.394237351177000       0.262506484139000        28.3551499182928     
  0.647096743761000       0.663318355156000        30.9223940438114     
  0.362913851724000       0.649396354804000        26.3604620709725     
  0.663663273528000       0.340117077794000        30.6146982681131     
  0.346438175287000       0.343392585414000        30.7939579021357     
  0.262375438497000       0.496374644599000        28.5510980554268     
  0.501577309992000       0.750037598959000        26.8412687435913     
  0.506237639419000       0.266393091354000        30.0158464442314     
  0.759556954292000       0.447008150321000        27.6765990861022     
  0.736311694166000       0.528788799329000        26.1273740333844     
  0.451480557246000       0.677158194157000        28.8267307233051     
  0.355874890752000       0.437604901487000        27.5948979659741     
  0.631642898426000       0.561044182867000        23.9945337726553     
  0.663641328025000       0.441792354036000        23.4416236692451     
  0.358865573985000       0.543691276185000        27.9632868701989     
  0.567226308969000       0.365364759874000        21.5800344775835     
  0.447022885673000       0.366629622907000        21.8960468186188     
  0.547007763850000       0.648193877081000        22.0136565862100     
  0.450180637581000       0.591081881599000        25.0464880602350     
  0.455199286966000       0.483763928895000        20.7524260059851     
  0.562870256125000       0.471765253237000        23.9886716965485     
  0.530226798130000       0.551876696999000        30.6276006778475     
          40           1          41
          41           1           3
          22          32          43
          22          43          31
          21          12          44
          44          12          23
          11           2          45
          45           2          13
          43          32          46
          46          32          33
          31          43          47
          31          47          30
          21          44          48
          21          48          20
          41           3          49
          49           3           4
          44          23          50
          50          23          24
          40          41          51
          40          51          39
          45          13          52
          52          13          14
          11          45          53
          11          53          10
          50          24          54
          54          24          25
          39          51          55
          39          55          38
          52          14          56
          56          14          15
          10          53          57
          10          57           9
          46          33          58
          58          33          34
          30          47          59
          30          59          29
          20          48          60
          20          60          19
          49           4          61
          61           4           5
          58          34          62
          62          34          35
          29          59          63
          29          63          28
          19          60          64
          19          64          18
          61           5          65
          65           5           6
          54          25          66
          66          25          26
          38          55          67
          38          67          37
          56          15          68
          68          15          16
           9          57          69
           9          69           8
          66          26          70
          70          26          27
          37          67          71
          37          71          36
           8          69          72
           8          72           7
          68          16          73
          73          16          17
          62          35          42
          42          35          36
          28          63          75
          28          75          27
          18          64          76
          18          76          17
          65           6          77
          77           6           7
          27          75          70
          42          36          71
          17          76          73
           7          72          77
          53          45          52
          41          49          51
          44          50          48
          47          43          46
          60          48          74
          74          48          50
          50          54          79
          50          79          74
          54          66          80
          54          80          79
          66          70          81
          66          81          80
          64          60          82
          82          60          74
          76          64          83
          83          64          82
          49          61          84
          49          84          51
          55          51          85
          85          51          84
          67          55          86
          86          55          85
          71          67          87
          87          67          86
          61          65          88
          61          88          84
          65          77          89
          65          89          88
          59          47          90
          90          47          46
          46          58          91
          46          91          90
          58          62          92
          58          92          91
          62          42          93
          62          93          92
          63          59          94
          94          59          90
          75          63          95
          95          63          94
          57          53          96
          96          53          52
          52          56          97
          52          97          96
          56          68          98
          56          98          97
          68          73          99
          68          99          98
          69          57         100
         100          57          96
          72          69         101
         101          69         100
          42          71          93
          71          87          93
          70          75          95
          81          70          95
          73          76          83
          99          73          83
          89          77         102
         102          77          72
          72         101         102
          74          79         103
          74         103          82
          79          80         103
          84          88         104
          84         104          85
          86          85         104
          90          91         105
          90         105          94
          91          92         105
         100          96         106
         106          96          97
          97          98         106
         101         100         107
         107         100         106
          95          94         108
         108          94         105
          88          89         109
          88         109         104
          83          82         110
         110          82         103
          98          99         111
          98         111         106
          87          86         112
         112          86         104
          80          81         113
          80         113         103
          92          93         114
          92         114         105
         106         111         115
         106         115         107
         110         103         116
         116         103         113
         104         109         117
         104         117         112
         105         114         118
         105         118         108
          81          95         119
         119          95         108
         113          81         119
          99          83         120
         120          83         110
         111          99         120
          93          87         121
          93         121         114
          87         112         121
         109          89         122
         122          89         102
         102         101         123
         102         123         122
         101         107         123
         120         110         124
         124         110         116
         108         118         125
         108         125         119
         123         107         126
         126         107         115
         122         123         127
         127         123         126
         109         122         127
         117         109         127
         113         119         128
         128         119         125
         116         113         128
         121         112         129
         129         112         117
         114         121         130
         130         121         129
         118         114         130
         111         120         131
         111         131         115
         120         124         131
         125         118         130
         126         115         131
         129         117         127
         116         128         132
         116         132         124
         128         125         133
         128         133         132
         130         129          78
          78         129         134
         134         129         127
         127         126         134
         133         125         130
         130          78         133
         131         124         132
         134         126         135
         135         126         131
          78         134         133
         132         133         135
         135         133         134
         135         131         132
